# vtk DataFile Version 2.0
sampleSurface
ASCII
DATASET POLYDATA
POINTS 6666 float
200 0 0
200 10 0
200 20 0
200 30 0
200 40 0
200 50 0
200 60 0
200 70 0
200 80 0
200 90 0
200 100 0
200 110 0
200 120 0
200 130 0
200 140 0
200 150 0
200 160 0
200 170 0
200 180 0
200 190 0
200 200 0
200 210 0
200 220 0
200 230 0
200 240 0
200 250 0
200 260 0
200 270 0
200 280 0
200 290 0
200 300 0
200 310 0
200 320 0
200 330 0
200 340 0
200 350 0
200 360 0
200 370 0
200 380 0
200 390 0
200 400 0
200 410 0
200 420 0
200 430 0
200 440 0
200 450 0
200 460 0
200 470 0
200 480 0
200 490 0
200 500 0
200 510 0
200 520 0
200 530 0
200 540 0
200 550 0
200 560 0
200 570 0
200 580 0
200 590 0
200 600 0
200 610 0
200 620 0
200 630 0
200 640 0
200 650 0
200 660 0
200 670 0
200 680 0
200 690 0
200 700 0
200 710 0
200 720 0
200 730 0
200 740 0
200 750 0
200 760 0
200 770 0
200 780 0
200 790 0
200 800 0
200 810 0
200 820 0
200 830 0
200 840 0
200 850 0
200 860 0
200 870 0
200 880 0
200 890 0
200 900 0
200 910 0
200 920 0
200 930 0
200 940 0
200 950 0
200 960 0
200 970 0
200 980 0
200 990 0
200 1000 0
200 0 10
200 10 10
200 20 10
200 30 10
200 40 10
200 50 10
200 60 10
200 70 10
200 80 10
200 90 10
200 100 10
200 110 10
200 120 10
200 130 10
200 140 10
200 150 10
200 160 10
200 170 10
200 180 10
200 190 10
200 200 10
200 210 10
200 220 10
200 230 10
200 240 10
200 250 10
200 260 10
200 270 10
200 280 10
200 290 10
200 300 10
200 310 10
200 320 10
200 330 10
200 340 10
200 350 10
200 360 10
200 370 10
200 380 10
200 390 10
200 400 10
200 410 10
200 420 10
200 430 10
200 440 10
200 450 10
200 460 10
200 470 10
200 480 10
200 490 10
200 500 10
200 510 10
200 520 10
200 530 10
200 540 10
200 550 10
200 560 10
200 570 10
200 580 10
200 590 10
200 600 10
200 610 10
200 620 10
200 630 10
200 640 10
200 650 10
200 660 10
200 670 10
200 680 10
200 690 10
200 700 10
200 710 10
200 720 10
200 730 10
200 740 10
200 750 10
200 760 10
200 770 10
200 780 10
200 790 10
200 800 10
200 810 10
200 820 10
200 830 10
200 840 10
200 850 10
200 860 10
200 870 10
200 880 10
200 890 10
200 900 10
200 910 10
200 920 10
200 930 10
200 940 10
200 950 10
200 960 10
200 970 10
200 980 10
200 990 10
200 1000 10
200 0 20
200 10 20
200 20 20
200 30 20
200 40 20
200 50 20
200 60 20
200 70 20
200 80 20
200 90 20
200 100 20
200 110 20
200 120 20
200 130 20
200 140 20
200 150 20
200 160 20
200 170 20
200 180 20
200 190 20
200 200 20
200 210 20
200 220 20
200 230 20
200 240 20
200 250 20
200 260 20
200 270 20
200 280 20
200 290 20
200 300 20
200 310 20
200 320 20
200 330 20
200 340 20
200 350 20
200 360 20
200 370 20
200 380 20
200 390 20
200 400 20
200 410 20
200 420 20
200 430 20
200 440 20
200 450 20
200 460 20
200 470 20
200 480 20
200 490 20
200 500 20
200 510 20
200 520 20
200 530 20
200 540 20
200 550 20
200 560 20
200 570 20
200 580 20
200 590 20
200 600 20
200 610 20
200 620 20
200 630 20
200 640 20
200 650 20
200 660 20
200 670 20
200 680 20
200 690 20
200 700 20
200 710 20
200 720 20
200 730 20
200 740 20
200 750 20
200 760 20
200 770 20
200 780 20
200 790 20
200 800 20
200 810 20
200 820 20
200 830 20
200 840 20
200 850 20
200 860 20
200 870 20
200 880 20
200 890 20
200 900 20
200 910 20
200 920 20
200 930 20
200 940 20
200 950 20
200 960 20
200 970 20
200 980 20
200 990 20
200 1000 20
200 0 30
200 10 30
200 20 30
200 30 30
200 40 30
200 50 30
200 60 30
200 70 30
200 80 30
200 90 30
200 100 30
200 110 30
200 120 30
200 130 30
200 140 30
200 150 30
200 160 30
200 170 30
200 180 30
200 190 30
200 200 30
200 210 30
200 220 30
200 230 30
200 240 30
200 250 30
200 260 30
200 270 30
200 280 30
200 290 30
200 300 30
200 310 30
200 320 30
200 330 30
200 340 30
200 350 30
200 360 30
200 370 30
200 380 30
200 390 30
200 400 30
200 410 30
200 420 30
200 430 30
200 440 30
200 450 30
200 460 30
200 470 30
200 480 30
200 490 30
200 500 30
200 510 30
200 520 30
200 530 30
200 540 30
200 550 30
200 560 30
200 570 30
200 580 30
200 590 30
200 600 30
200 610 30
200 620 30
200 630 30
200 640 30
200 650 30
200 660 30
200 670 30
200 680 30
200 690 30
200 700 30
200 710 30
200 720 30
200 730 30
200 740 30
200 750 30
200 760 30
200 770 30
200 780 30
200 790 30
200 800 30
200 810 30
200 820 30
200 830 30
200 840 30
200 850 30
200 860 30
200 870 30
200 880 30
200 890 30
200 900 30
200 910 30
200 920 30
200 930 30
200 940 30
200 950 30
200 960 30
200 970 30
200 980 30
200 990 30
200 1000 30
200 0 40
200 10 40
200 20 40
200 30 40
200 40 40
200 50 40
200 60 40
200 70 40
200 80 40
200 90 40
200 100 40
200 110 40
200 120 40
200 130 40
200 140 40
200 150 40
200 160 40
200 170 40
200 180 40
200 190 40
200 200 40
200 210 40
200 220 40
200 230 40
200 240 40
200 250 40
200 260 40
200 270 40
200 280 40
200 290 40
200 300 40
200 310 40
200 320 40
200 330 40
200 340 40
200 350 40
200 360 40
200 370 40
200 380 40
200 390 40
200 400 40
200 410 40
200 420 40
200 430 40
200 440 40
200 450 40
200 460 40
200 470 40
200 480 40
200 490 40
200 500 40
200 510 40
200 520 40
200 530 40
200 540 40
200 550 40
200 560 40
200 570 40
200 580 40
200 590 40
200 600 40
200 610 40
200 620 40
200 630 40
200 640 40
200 650 40
200 660 40
200 670 40
200 680 40
200 690 40
200 700 40
200 710 40
200 720 40
200 730 40
200 740 40
200 750 40
200 760 40
200 770 40
200 780 40
200 790 40
200 800 40
200 810 40
200 820 40
200 830 40
200 840 40
200 850 40
200 860 40
200 870 40
200 880 40
200 890 40
200 900 40
200 910 40
200 920 40
200 930 40
200 940 40
200 950 40
200 960 40
200 970 40
200 980 40
200 990 40
200 1000 40
200 0 50
200 10 50
200 20 50
200 30 50
200 40 50
200 50 50
200 60 50
200 70 50
200 80 50
200 90 50
200 100 50
200 110 50
200 120 50
200 130 50
200 140 50
200 150 50
200 160 50
200 170 50
200 180 50
200 190 50
200 200 50
200 210 50
200 220 50
200 230 50
200 240 50
200 250 50
200 260 50
200 270 50
200 280 50
200 290 50
200 300 50
200 310 50
200 320 50
200 330 50
200 340 50
200 350 50
200 360 50
200 370 50
200 380 50
200 390 50
200 400 50
200 410 50
200 420 50
200 430 50
200 440 50
200 450 50
200 460 50
200 470 50
200 480 50
200 490 50
200 500 50
200 510 50
200 520 50
200 530 50
200 540 50
200 550 50
200 560 50
200 570 50
200 580 50
200 590 50
200 600 50
200 610 50
200 620 50
200 630 50
200 640 50
200 650 50
200 660 50
200 670 50
200 680 50
200 690 50
200 700 50
200 710 50
200 720 50
200 730 50
200 740 50
200 750 50
200 760 50
200 770 50
200 780 50
200 790 50
200 800 50
200 810 50
200 820 50
200 830 50
200 840 50
200 850 50
200 860 50
200 870 50
200 880 50
200 890 50
200 900 50
200 910 50
200 920 50
200 930 50
200 940 50
200 950 50
200 960 50
200 970 50
200 980 50
200 990 50
200 1000 50
200 0 60
200 10 60
200 20 60
200 30 60
200 40 60
200 50 60
200 60 60
200 70 60
200 80 60
200 90 60
200 100 60
200 110 60
200 120 60
200 130 60
200 140 60
200 150 60
200 160 60
200 170 60
200 180 60
200 190 60
200 200 60
200 210 60
200 220 60
200 230 60
200 240 60
200 250 60
200 260 60
200 270 60
200 280 60
200 290 60
200 300 60
200 310 60
200 320 60
200 330 60
200 340 60
200 350 60
200 360 60
200 370 60
200 380 60
200 390 60
200 400 60
200 410 60
200 420 60
200 430 60
200 440 60
200 450 60
200 460 60
200 470 60
200 480 60
200 490 60
200 500 60
200 510 60
200 520 60
200 530 60
200 540 60
200 550 60
200 560 60
200 570 60
200 580 60
200 590 60
200 600 60
200 610 60
200 620 60
200 630 60
200 640 60
200 650 60
200 660 60
200 670 60
200 680 60
200 690 60
200 700 60
200 710 60
200 720 60
200 730 60
200 740 60
200 750 60
200 760 60
200 770 60
200 780 60
200 790 60
200 800 60
200 810 60
200 820 60
200 830 60
200 840 60
200 850 60
200 860 60
200 870 60
200 880 60
200 890 60
200 900 60
200 910 60
200 920 60
200 930 60
200 940 60
200 950 60
200 960 60
200 970 60
200 980 60
200 990 60
200 1000 60
200 0 70
200 10 70
200 20 70
200 30 70
200 40 70
200 50 70
200 60 70
200 70 70
200 80 70
200 90 70
200 100 70
200 110 70
200 120 70
200 130 70
200 140 70
200 150 70
200 160 70
200 170 70
200 180 70
200 190 70
200 200 70
200 210 70
200 220 70
200 230 70
200 240 70
200 250 70
200 260 70
200 270 70
200 280 70
200 290 70
200 300 70
200 310 70
200 320 70
200 330 70
200 340 70
200 350 70
200 360 70
200 370 70
200 380 70
200 390 70
200 400 70
200 410 70
200 420 70
200 430 70
200 440 70
200 450 70
200 460 70
200 470 70
200 480 70
200 490 70
200 500 70
200 510 70
200 520 70
200 530 70
200 540 70
200 550 70
200 560 70
200 570 70
200 580 70
200 590 70
200 600 70
200 610 70
200 620 70
200 630 70
200 640 70
200 650 70
200 660 70
200 670 70
200 680 70
200 690 70
200 700 70
200 710 70
200 720 70
200 730 70
200 740 70
200 750 70
200 760 70
200 770 70
200 780 70
200 790 70
200 800 70
200 810 70
200 820 70
200 830 70
200 840 70
200 850 70
200 860 70
200 870 70
200 880 70
200 890 70
200 900 70
200 910 70
200 920 70
200 930 70
200 940 70
200 950 70
200 960 70
200 970 70
200 980 70
200 990 70
200 1000 70
200 0 80
200 10 80
200 20 80
200 30 80
200 40 80
200 50 80
200 60 80
200 70 80
200 80 80
200 90 80
200 100 80
200 110 80
200 120 80
200 130 80
200 140 80
200 150 80
200 160 80
200 170 80
200 180 80
200 190 80
200 200 80
200 210 80
200 220 80
200 230 80
200 240 80
200 250 80
200 260 80
200 270 80
200 280 80
200 290 80
200 300 80
200 310 80
200 320 80
200 330 80
200 340 80
200 350 80
200 360 80
200 370 80
200 380 80
200 390 80
200 400 80
200 410 80
200 420 80
200 430 80
200 440 80
200 450 80
200 460 80
200 470 80
200 480 80
200 490 80
200 500 80
200 510 80
200 520 80
200 530 80
200 540 80
200 550 80
200 560 80
200 570 80
200 580 80
200 590 80
200 600 80
200 610 80
200 620 80
200 630 80
200 640 80
200 650 80
200 660 80
200 670 80
200 680 80
200 690 80
200 700 80
200 710 80
200 720 80
200 730 80
200 740 80
200 750 80
200 760 80
200 770 80
200 780 80
200 790 80
200 800 80
200 810 80
200 820 80
200 830 80
200 840 80
200 850 80
200 860 80
200 870 80
200 880 80
200 890 80
200 900 80
200 910 80
200 920 80
200 930 80
200 940 80
200 950 80
200 960 80
200 970 80
200 980 80
200 990 80
200 1000 80
200 0 90
200 10 90
200 20 90
200 30 90
200 40 90
200 50 90
200 60 90
200 70 90
200 80 90
200 90 90
200 100 90
[...]
CELL_DATA 6500
FIELD attributes 1
U 3 6500 float
5.3851905 0.17990512 0.18146545
5.6245856 -0.38233253 0.003504128
6.1195583 -0.33377033 0.17301123
5.6144433 0.10493287 -0.11441607
7.3390527 0.19483022 -0.68714303
6.3819833 -0.21500495 -0.084105901
6.4771252 -0.0668054 -0.1116196
6.7744918 -0.28391814 0.17427231
6.1051993 -0.14488705 -0.17594616
6.9670291 0.63265741 -0.16181442
7.6319866 0.034228295 -0.62783027
6.4829941 -0.047466457 -0.092348546
7.2895799 -0.22865766 0.12108605
6.4799109 0.10612525 0.030007359
6.7369757 -0.17264009 0.15052493
5.7359338 -0.23531638 0.064132281
5.6821728 0.37011075 0.090804957
7.0879788 -0.29916227 0.012352391
7.7368488 -0.2090936 -0.88491291
7.5817041 -0.26504424 0.02047785
7.0703101 -0.081548132 -0.19105223
6.7409058 -0.18226078 0.20714872
6.7421331 -0.10898834 0.4158195
6.5946379 -0.098283224 0.24926126
5.2377725 -0.067388698 0.012046454
6.0421295 0.40858525 -0.18059857
6.4875021 0.34809631 0.023992995
7.7980886 -0.26389623 -0.69466108
7.6335325 -0.18292087 -0.64410996
6.7737231 -0.070760444 0.23531716
7.2324739 -0.52216083 -0.23775986
7.3933702 -0.35448819 -0.19414052
6.6386085 -0.33134267 0.54481179
6.8639679 0.034272633 0.33580774
6.419313 0.011272967 0.36507514
5.2392302 0.2310636 -0.022132939
6.1390848 0.47388461 -0.061140142
7.132452 0.17600746 -0.37715584
7.3638167 0.21087979 -0.42933494
8.2088642 -0.49123344 -0.81188315
6.8094296 -0.051443942 -0.16635354
7.1454535 -0.46464419 0.10166418
8.3868694 -0.10737492 0.13813007
8.314292 -0.21743529 -0.067348823
6.8084145 -0.4855333 0.44818863
6.9181414 -0.22374719 0.39033577
6.5828557 0.087994978 0.4895806
6.746243 0.55989051 0.40973526
5.2065377 0.19082882 0.10312325
6.3823223 0.58926803 -0.064637884
7.2761822 0.28209731 -0.20454285
7.9747171 0.058086969 -0.43421105
8.1753302 -0.24086291 -0.48742101
7.7538738 -0.17552844 -0.42865542
7.6366048 -0.43631795 -0.12948006
7.4745197 0.031788249 0.060870502
8.5339327 0.31336546 -0.049791813
8.6607542 -0.02612137 -0.28269044
7.2389479 -0.51365435 0.21884291
6.869729 -0.55873346 0.49342638
6.8411803 0.055346414 0.47184539
6.7654972 0.35125801 0.38663271
7.4558616 0.1831928 0.026320694
5.593287 0.33565092 0.095108762
6.7494059 0.59199697 -0.083686113
7.627326 0.38705325 -0.2023399
7.7626119 0.05709279 -0.31154978
8.0318155 -0.42170176 -0.55656737
8.0855904 -0.35350978 -0.41776675
7.7531486 -0.33166891 0.061559439
7.8590183 -0.30232891 -0.095456377
8.1614943 0.31288132 0.1111991
8.5411968 0.1031225 -0.23054773
7.7976704 0.16588554 -0.14873846
7.8447475 -0.24175781 -0.12420832
7.150167 -0.50048232 0.21100451
6.7564712 -0.45266283 0.44323987
6.7895889 -0.0040635946 0.035007965
7.4783449 -0.13857298 -0.32481286
7.3496947 0.032406684 -0.21828149
6.2517223 -0.12659055 0.044268727
6.4535031 0.64768195 0.079327039
7.4318442 0.36866766 -0.024936251
7.701726 0.13540469 -0.19635472
7.8699722 -0.32547364 -0.28803879
8.0570145 -0.40278411 -0.33422786
8.2480021 -0.49681261 -0.19268242
7.9515686 -0.30229071 -0.30146459
7.6822104 0.32194811 0.11894655
7.8508067 -0.0096582938 0.13474759
8.2600002 -0.0059270575 -0.017967133
7.9613829 0.19765902 -0.31617993
7.3819261 0.10552364 -0.015522664
7.9477668 -0.20146489 0.0036030016
6.9520988 -0.69884384 0.48951015
6.8678417 -0.39247531 0.060962453
7.4238915 -0.23854779 -0.44887337
7.6734619 0.048076387 -0.27021545
7.1906366 -0.061489977 0.032541368
5.2389574 -0.1801239 0.10811377
6.0494103 0.69462895 0.086518094
7.1333923 0.5108822 -0.015821852
7.2029643 0.050955184 -0.13615923
7.6382575 -0.14736256 -0.26813501
8.421546 -0.39573377 -0.49799487
8.445878 -0.48888332 -0.40293959
8.0542641 -0.36343196 -0.2757099
7.5310507 0.20042081 0.052864794
7.6741281 -0.075710781 -0.027244769
7.8008008 -0.063249752 0.13416095
7.9999042 -0.032286093 -0.016564718
8.0016441 0.23361063 0.20459877
7.7802792 -0.16888058 0.034163181
8.034318 -0.058415949 -0.12511703
7.4514518 -0.49728742 0.146008
6.8911157 -0.56288457 0.26738644
7.4158278 -0.22003061 -0.1862632
8.1447697 0.10172531 -0.35173947
7.2951651 -0.096381627 0.058538318
6.2309394 -0.22372991 0.19451198
5.3984861 0.32694614 0.13721739
6.4642196 0.68118167 -0.21867247
6.8846951 0.44349915 0.19865739
6.724401 0.085693605 0.30796161
7.2682824 -0.224243 -0.010711348
8.4251156 -0.29664662 -0.32720581
8.4835835 -0.40576056 -0.41087618
8.2832556 -0.09509325 -0.5333032
7.7974987 0.10541055 -0.39119139
7.879468 -0.1029357 -0.19724005
7.677002 -0.10400822 0.17871635
7.8631096 -0.30636653 0.14282848
8.0232954 -0.46679765 0.30617642
7.7962174 0.19216438 0.01013274
8.015831 0.017986516 -0.046841394
8.1292715 0.080118619 -0.034362186
7.587728 -0.23147126 0.17867807
7.2326512 -0.38903719 0.21316811
7.1681485 -0.35055727 0.13039356
7.5608578 -0.11557531 -0.29793632
7.915844 -0.25426805 -0.071112998
7.1704173 -0.098859869 0.040785257
6.5477285 -0.34820303 -0.046521686
5.4526987 0.24719602 -0.28643963
5.8782234 1.1402345 0.13583
7.4785647 0.0010688506 -0.047005035
6.8766222 -0.06095437 0.43567395
7.091495 -0.22105484 0.19426209
8.1217356 -0.28325546 -0.18986939
8.5013447 -0.33032134 -0.46545333
8.6653366 -0.17223945 -0.52876049
8.3460255 -0.092495717 -0.42488199
8.2278252 -0.15606152 -0.17483868
8.0086527 -0.25835621 0.09827359
8.0170717 -0.30646887 0.078927144
7.9932504 -0.42656776 0.30680186
8.171422 -0.59500456 0.24877739
8.1069508 -0.2197924 0.3075152
7.8430128 0.12516691 0.068704322
8.1320038 0.21196125 -0.16259092
8.0750074 0.10128488 0.020380571
7.4139624 -0.29175037 0.28069577
7.6628752 -0.3516295 0.1804242
7.4907622 -0.22537704 -0.04100547
7.9136786 -0.17554533 -0.22331521
7.2030091 -0.23206954 0.19127232
6.8852453 -0.0423497 -0.099349029
6.5518088 -0.023086015 0.15270209
5.2360477 0.25506428 -0.090947203
6.0537095 0.64997137 0.21042266
7.4674773 0.26363817 -0.11062841
7.4583707 0.22276504 -0.055075008
7.9395957 0.089827619 -0.11557614
8.1177654 -0.17171046 -0.065246798
8.1813908 -0.30325633 -0.10771647
8.3977022 -0.12138272 -0.49727026
8.5161343 -0.16312326 -0.44549131
8.4462919 -0.49046984 -0.31265447
8.4543743 -0.46044058 -0.16545703
8.2319021 -0.21329284 0.082738571
8.1632643 -0.30363899 0.10948329
7.9519806 -0.36072046 0.092670001
7.9866695 -0.39783275 0.13769965
8.0623674 -0.56105578 0.30537844
7.9240065 -0.062140226 -0.038860045
8.3426933 0.2027947 0.035336252
7.7168093 0.0077148536 -0.084122695
7.3866048 -0.23327222 0.33228436
7.663661 -0.19140594 0.015305005
7.45783 -0.5435763 0.20519046
7.5357375 -0.063324943 0.01736946
7.4230156 -0.1738835 0.17433089
6.7760458 0.15405683 0.047843318
6.2295833 0.4302747 0.28514105
6.2907543 0.43972969 0.34448597
5.852736 0.76176661 0.33876213
6.824326 0.34299541 -0.087286793
7.2208433 0.68117768 0.10001993
8.0760021 0.26526481 -0.19905823
8.4755116 0.30455664 -0.22562881
8.4329987 -0.22851619 -0.27187619
8.3623161 -0.33216479 0.11025844
8.3421373 -0.14545207 -0.16317014
8.2470465 -0.21000686 -0.57609296
8.339797 -0.26023898 -0.55809146
8.6130323 -0.27320966 -0.3798877
8.3013506 -0.23357108 -0.14058307
8.1585846 -0.15753563 0.03615367
8.0524769 -0.32133728 -0.049368076
7.927927 -0.20193799 0.051129669
8.0876694 -0.39778128 0.087957561
7.9132242 -0.46657041 0.2765066
8.1862068 -0.61530203 0.19969666
7.7566128 0.042581052 0.043032158
8.4539738 0.10910008 0.021213824
7.562861 -0.1002529 0.09915363
7.4427476 -0.042926934 0.32051939
7.2638326 -0.40695038 0.18707965
7.4722366 -0.37545693 0.16350739
7.4036283 0.05266244 0.091050163
7.2748065 -0.18449569 0.20597161
6.3511844 0.36305657 0.29184625
6.3397236 0.37111703 0.28994188
6.5263114 0.1708459 0.25907186
6.3702064 0.94637948 0.028773885
6.1175976 0.67767173 -0.13615724
8.0343008 0.38086778 -0.28627089
7.9357533 0.2846024 -0.020638285
8.2231407 0.11561319 -0.26218361
8.2814817 -0.14332813 -0.30792606
8.5324631 -0.24250221 -0.18833476
8.5087881 -0.12302639 -0.049988005
8.3773766 -0.2005111 -0.23904712
8.3061876 -0.26719087 -0.38461936
8.483304 -0.29788634 -0.59399831
8.3518114 -0.097416721 -0.41138139
8.2162361 -0.10313953 -0.16470492
8.0455923 -0.28236291 -0.063741781
8.2197123 -0.35204697 0.057927333
8.284687 -0.38834929 0.047028925
8.2086554 -0.41618899 0.14910027
8.0386372 -0.42500037 0.27156255
8.2571812 -0.55557775 0.16954949
7.8065166 -0.3551631 0.060688455
8.3038549 -0.013489997 0.069509752
7.9704165 0.011752875 0.35265034
7.8482957 -0.064814106 0.3204138
7.6653986 -0.045679517 0.24741313
7.9234552 -0.39990184 0.23190309
7.5876131 -0.35288584 0.092064127
7.2701669 -0.082552649 0.33187929
6.9236188 -0.029582588 0.24460375
6.5522995 0.36180285 0.17712304
6.7001953 0.1790801 0.14517915
6.8683109 0.51328892 0.099557273
6.5868578 0.16733856 -0.10620623
6.5172849 0.71850812 -0.24247432
7.952857 0.62535107 -0.18316093
7.9824319 0.56902057 -0.12654796
8.4148951 0.15909959 -0.14923374
8.0514097 -0.093581051 -0.20631371
8.4557848 -0.21312179 -0.21984102
8.822175 -0.17280102 -0.24246822
8.3656521 -0.18229003 -0.020294342
8.2463503 -0.24956299 -0.16863376
8.5049372 -0.4544642 -0.39340913
8.3834009 -0.41421193 -0.51516932
8.2962246 -0.13046528 -0.26896816
8.2835083 -0.25195539 -0.070650041
8.5863314 -0.52397561 -0.019474331
8.3307047 -0.49871293 0.20967612
8.4146423 -0.59025818 0.25003031
8.5098133 -0.53360468 0.20774394
8.1353197 -0.43922016 0.32249951
8.1227045 -0.35797495 0.045034621
8.1494942 -0.57915461 0.2456817
7.8720131 -0.38969198 0.086079635
8.3338652 -0.0042628022 0.091307938
8.1799145 0.077979393 0.40418211
8.1899309 -0.02517632 0.28893241
8.0167179 -0.32711515 0.2503134
7.9683957 -0.20450094 0.29775223
7.37568 -0.21685094 0.045232709
7.5704455 -0.1759727 0.14567673
6.9627275 -0.22778788 0.18188238
6.7071576 0.23239304 0.24720944
7.3150573 0.22541687 0.16820635
7.5248904 0.17369823 0.25592622
6.1382194 0.45531064 0.19396825
5.4985108 0.97247159 -0.025524709
7.2905207 0.61252069 0.10346685
8.1719427 0.4941332 -0.13479802
8.6173086 0.25715822 -0.13377692
8.1661873 -0.017920181 -0.19982448
8.485219 -0.25078094 -0.1142589
8.6086435 -0.36854646 -0.18869677
8.2738075 -0.26190582 -0.012536831
8.267724 -0.18048947 -0.11260296
8.35431 -0.44418365 -0.21433114
8.4535589 -0.49513128 -0.2848933
8.6171646 -0.37776449 -0.27603048
8.3016768 -0.33182585 -0.1320969
8.574666 -0.54998481 -0.093854956
8.4345427 -0.52605295 0.015371893
8.2626534 -0.46687993 0.24390228
8.3852091 -0.58795822 0.16749935
8.2069559 -0.43059811 0.17444205
8.3146563 -0.63162583 0.21957833
8.1242676 -0.47187668 0.084465913
8.0065393 -0.38639474 0.22275048
7.9047046 -0.47886473 0.1728148
8.0602036 -0.30144861 0.069859795
8.2328405 -0.21539038 0.087341346
8.4676876 -0.12587778 0.27358243
8.1357765 -0.226414 0.17842586
7.7443137 -0.014365838 0.33309364
7.6345811 -0.17655717 0.2831696
7.5617995 -0.3753967 -0.084579162
7.6270428 -0.3562977 0.20511487
6.9147544 -0.13431501 0.16800398
7.4133587 -0.087785147 -0.037159793
7.3177862 0.16640468 -0.12332326
7.0876818 0.084723212 0.24845158
6.4073448 0.66875118 0.17428277
5.7584267 0.69560164 0.1640453
6.0009146 0.41130906 0.070046492
7.9383273 0.67389756 0.034630544
8.4535189 0.26735243 0.09063565
7.9142828 0.1256081 -0.04947919
8.6424608 -0.35172373 -0.35076201
8.2203836 -0.31603798 -0.13860813
8.2946062 -0.41092202 -0.097111396
8.5921164 -0.17571473 -0.071246855
8.2787619 -0.42227328 -0.088344157
8.1399851 -0.5347057 -0.32856432
8.6211176 -0.41501701 -0.32799074
8.5262356 -0.42775565 -0.28355813
8.4732351 -0.56571907 -0.11849502
8.4704533 -0.588503 -0.10997373
8.1587563 -0.40063703 0.079322293
8.2816496 -0.49157664 0.18603002
8.5046673 -0.46853706 0.2137939
8.2285805 -0.30838194 0.14811268
8.1015234 -0.56742489 0.38867423
8.0823441 -0.47825244 0.041225553
8.0177183 -0.39879909 0.064401448
7.9327755 -0.40790391 0.20429265
7.9464836 -0.51657999 0.085215166
8.1887636 -0.26360837 -0.0062380303
8.3839407 -0.19952355 0.014246196
8.5314198 -0.3128354 0.22233865
7.9039059 -0.02500491 0.21068463
8.0861874 -0.29550532 0.090989701
8.0318069 -0.13094482 -0.019192308
7.5767398 -0.31427318 0.13002281
6.9592528 -0.25250259 0.38916564
7.2607903 -0.35942736 -0.24219139
7.4340663 -0.24076658 -0.39823878
7.3120136 -0.054531157 -0.034848407
7.063437 0.12896116 0.19810709
6.2141891 0.25240794 0.073042147
6.4529276 1.2235986 0.064183913
6.9496746 0.92730796 0.30650461
7.4519844 0.86823398 0.13757251
8.0660896 0.43869501 0.11884974
7.9143071 0.042505093 -0.040448558
8.6466894 -0.32113943 -0.36899647
8.2594147 -0.31968507 -0.21201074
8.1701527 -0.36629069 -0.17899837
8.2951908 -0.16583234 -0.11546141
8.556077 -0.2591686 -0.033691954
8.5333757 -0.68608809 -0.28051114
8.4985104 -0.51096439 -0.035958841
8.450469 -0.60386586 -0.22354487
8.7276764 -0.54814959 -0.16640368
8.5745382 -0.60571676 -0.20326626
8.4707289 -0.55918211 -0.03623838
8.3389187 -0.48642689 0.16642639
8.5483656 -0.50997818 0.20045528
8.4029799 -0.32948557 0.17654002
8.4300699 -0.36662203 0.11954261
8.1702576 -0.46610403 0.36048412
8.0915546 -0.30585858 0.30971703
8.0327845 -0.24394612 0.1117921
7.9762812 -0.44097361 0.16539325
8.0156689 -0.38941538 0.13100699
7.9717336 -0.3269586 0.090895519
8.3545666 -0.19014239 -0.020570472
8.605299 -0.40488648 0.15171085
8.2912178 -0.15055209 0.28853965
8.3824139 -0.22996563 0.1625077
8.5171032 -0.0087248087 -0.043662
8.4446869 -0.21318059 0.040350217
7.5926356 -0.41944972 -0.016402667
7.465539 -0.5608775 -0.15300937
7.5826836 -0.35305321 -0.3030884
7.6642137 -0.21176931 -0.03454344
7.2446027 -0.10249699 -0.19095486
7.5271373 -0.13310951 -0.21691288
5.3680177 -0.063246131 0.034483079
6.3036084 0.92296886 -0.019955503
8.1495304 0.91683894 0.36648712
7.377306 0.88185239 0.25113884
7.8037915 0.56583482 0.076948866
7.981112 0.095995687 -0.30618846
8.5398769 -0.32596704 -0.21909796
8.2554722 -0.27712688 -0.24945524
8.1563187 -0.31921494 -0.20957643
8.0693121 -0.24630193 -0.10736259
8.4058094 -0.17994462 0.018275252
8.4975348 -0.36558381 -0.31003183
8.8021088 -0.62492782 -0.2905618
8.5940638 -0.68510795 -0.084776431
8.5820084 -0.59148067 -0.13073687
8.6177597 -0.59207797 -0.33242458
8.539197 -0.62628061 -0.19008742
8.3825464 -0.51791483 0.1102801
8.5197506 -0.37494034 0.076734073
8.5098324 -0.35503 0.14404473
8.6238613 -0.39879596 0.22603519
8.073349 -0.29687077 0.23352538
8.1144266 -0.4009591 0.24968891
8.0949116 -0.46934476 0.27553168
8.1250525 -0.17539996 0.071227171
8.0865612 -0.290887 0.16475393
7.9942775 -0.40657321 0.078053422
7.9805608 -0.34185222 0.19395542
8.1391048 -0.26108557 0.017370125
8.5804424 -0.27187669 0.015160795
8.465415 -0.22274449 0.18269925
8.6311798 -0.12508306 -0.023440221
8.5110626 -0.028182179 -0.0038147296
8.3175364 -0.010117703 -0.014089447
8.3163376 -0.26351497 -0.11733203
7.9674296 -0.54350692 -0.30852246
7.9343019 -0.074526228 -0.40085894
7.5472779 -0.29763567 -0.19639337
7.5288796 -0.52103859 -0.074240044
7.2315135 -0.36452085 -0.33505073
7.5359168 -0.16297941 0.15785155
5.2652969 0.44539174 -0.019104889
5.881906 0.50862128 0.066926599
7.7168288 0.95145977 0.28511143
7.776628 0.87455463 0.26714939
7.7847762 0.67229158 0.20604837
8.0583887 0.15691656 -0.34258145
8.5483456 0.018271487 -0.18887746
8.456809 -0.25812167 -0.32448319
8.4296932 -0.28338802 -0.20263873
8.2653847 -0.19238541 -0.15193082
8.4083405 -0.21369235 -0.11794804
8.5092916 -0.32677412 -0.29216787
8.8588791 -0.43600491 -0.38249558
8.9647999 -0.59652513 -0.39771223
8.5359755 -0.68309087 -0.049017716
8.4780865 -0.60679924 -0.10315192
8.6576004 -0.7157144 -0.23455392
8.5002375 -0.60152477 -0.098305732
8.5564432 -0.34054762 0.062349945
8.5127611 -0.32070619 0.066143379
8.6251144 -0.34109807 0.24954405
8.3453951 -0.40368715 0.25647733
7.9912043 -0.21528177 0.43682304
8.1076155 -0.10715873 0.32574794
8.0782232 -0.37351525 0.30439252
8.0798664 -0.30860209 0.12010264
8.2096958 -0.20649604 0.043647699
8.0991573 -0.29186586 0.11785889
8.0857258 -0.38217786 0.044203233
8.1844597 -0.36485663 0.069415428
8.3763981 -0.35546675 0.057516556
8.4662533 -0.12763432 0.18571042
8.5745726 -0.2132825 0.10784901
8.5090418 -0.16690774 -0.095941313
8.4703751 -0.33871189 -0.11376774
8.0174732 -0.12108371 -0.10478111
7.7967939 -0.13244909 -0.086137757
7.914783 0.043648131 -0.38143551
7.9598484 -0.28907856 -0.044926081
7.4649153 -0.32288706 -0.17160466
7.5537691 -0.34599391 -0.030309884
7.5244198 0.10260778 -0.11999233
7.0018969 -0.13189766 0.097144097
5.741261 0.10585999 -0.048053507
5.7084103 0.19049332 -0.0029699258
6.7264194 0.71710962 0.19375175
8.1585445 1.1593528 -0.07044103
7.9951763 0.94415969 0.27907658
8.3074722 0.34862536 -0.21641545
8.4433556 0.03367167 -0.17743935
8.3249149 0.055195577 -0.24788769
8.6658974 -0.10898028 -0.27125698
8.6421013 -0.15480496 -0.16835704
8.6232777 -0.14236043 -0.3067309
8.628993 -0.19018474 -0.26236433
8.7185478 -0.4627623 -0.17127961
8.7200823 -0.7961908 -0.52363241
8.6980085 -0.59187919 -0.34264368
8.4763527 -0.6368736 -0.12521338
8.6651163 -0.65114558 -0.21860211
8.6260414 -0.61630476 -0.34803537
8.5505333 -0.3782278 -0.085454941
8.6182861 -0.28572994 0.094287537
8.4319324 -0.35166603 0.097864754
8.5868597 -0.28076655 0.26090643
8.1773376 -0.31230113 0.21933334
7.8644824 -0.16279888 0.38982809
8.019393 -0.067527972 0.43204069
8.2023792 -0.034539629 0.33723956
8.1999025 -0.21589191 0.21730918
8.2522831 -0.19970275 0.022880359
8.1948681 -0.18694058 -0.044945899
8.386632 -0.31582457 0.15815847
8.3162518 -0.33703342 0.016816337
8.4309587 -0.35242748 0.092904672
8.3082323 -0.36108986 0.10018124
8.5386839 -0.24572876 0.053013097
8.8833561 -0.15522924 0.099747501
8.3590097 -0.22319214 -0.079901457
8.4467487 -0.24681292 -0.085374117
7.8889112 0.068259016 -0.11180604
7.6872449 -0.034020629 -0.065303169
7.8341165 0.050211061 -0.29879659
7.584497 -0.11474495 -0.02651206
7.6761069 -0.28821373 -0.20482105
7.7074928 -0.47428384 0.072929852
7.2888002 -0.35507342 -0.3011781
7.0653319 -0.28614202 0.11970554
6.3235207 0.00013065631 -0.23270437
5.5945611 -0.29597121 -0.22323683
6.7177711 0.39355233 0.25615606
7.6497383 1.0535531 -0.012882952
8.2877407 1.0464705 0.22401886
8.12638 0.39603287 -0.097371131
8.336134 0.26162276 -0.10118959
8.4524689 0.16499335 -0.29155859
8.4606485 -0.030337239 -0.33213654
8.8496761 -0.17517063 -0.31055719
8.7278481 -0.085038446 -0.26087445
8.8695536 -0.19717561 -0.4326252
8.7140837 -0.43211263 -0.3913691
8.3508253 -0.83082658 -0.36996979
8.4611254 -0.80385369 -0.29164985
8.6057472 -0.4289315 -0.28445092
8.6193314 -0.56373322 -0.24783231
8.6272984 -0.61561823 -0.294018
8.4203234 -0.36695674 -0.30661651
8.6734638 -0.23157185 -0.066019848
8.4590292 -0.31124169 -0.053720132
8.474822 -0.26926833 0.13998221
8.3903818 -0.25424692 0.17081419
8.073801 -0.19024226 0.26921546
7.8558555 -0.12801333 0.37313378
7.8940573 -0.18898271 0.43109286
8.2209435 -0.020791655 0.31973532
8.3323288 0.073052235 0.23214988
8.2083931 -0.036912911 0.084419891
8.2147703 -0.13057938 -0.039690446
8.4835224 -0.19132879 -0.0036571634
8.5051947 -0.2525889 0.12123321
8.5121527 -0.30207872 0.077909015
8.3491678 -0.38617489 0.10468277
8.3425627 -0.34616947 -0.039895032
8.5629873 -0.26751739 0.1087345
8.5443068 -0.093265362 -0.05063089
8.2229776 -0.016716503 0.17315134
7.9059687 -0.18284167 0.04869353
7.9400845 0.18380442 -0.20043474
7.8217964 0.12731199 -0.23374979
7.7464108 0.031429466 -0.019601718
7.4712367 -0.15175804 0.16673702
7.596602 -0.14003104 -0.032387178
7.8693247 -0.33615777 -0.10481519
7.3472152 0.002390299 -0.0095729884
6.3498836 -0.036803186 0.023829805
5.754962 0.013201202 -0.11390274
5.2457423 -0.11933804 -0.015945321
6.5559578 -0.1437549 0.29218242
7.3127012 0.96499383 0.029573753
8.1985006 0.88346118 0.39366978
7.8755231 0.42078555 0.094408296
8.0994186 0.21715294 -0.020969179
8.1029425 0.20148687 -0.12667419
8.3093767 0.10501019 -0.31682089
8.8570433 -0.12509425 -0.40491843
8.9107494 -0.14485516 -0.38789278
8.812995 -0.11833685 -0.38401562
8.6865702 -0.48043147 -0.43844464
8.285697 -0.74058098 -0.38679662
8.3896341 -0.87444842 -0.25224948
8.7946072 -0.511491 -0.2761763
8.6227722 -0.43793407 -0.41177729
8.7065353 -0.52868783 -0.41012588
8.3518124 -0.37591407 -0.40451312
8.5617695 -0.2039741 -0.24416219
8.5466423 -0.21385805 -0.22507671
8.3672352 -0.30394584 -0.038946047